ITEM: TIMESTEP
0.125168
ITEM: NUMBER OF ATOMS
1200
ITEM: BOX BOUNDS
0	40
0	40
0	40
ITEM: ATOMS index type x y z
     1	 9.74543	 20.6794	 29.7592	  1.2408	0.185212	 2.11841
     2	  10.473	 21.0039	 30.9648	-0.890612	0.359697	0.317816
     3	 10.8208	 19.9005	 31.7884	0.350746	-0.00643235	-0.172306
     4	 10.9806	 18.6962	 31.0916	 1.08777	-0.0297162	-0.260798
     5	  10.461	 18.4325	 29.8057	 1.12067	  2.5971	-2.80243
     6	 9.95719	   19.51	 29.0978	-1.11835	0.711446	-1.00823
     7	 9.91765	 21.7163	 31.5341	0.662475	-2.92797	 2.52404
     8	   10.39	 19.5613	 28.0831	 4.81849	 5.77412	-1.91256
     9	 11.5575	 20.2397	 32.5171	 -3.9086	-10.9662	 1.20707
    10	 11.2192	 17.9174	 29.1835	-4.67896	 1.84081	-10.3256
    11	 11.0485	 17.7999	 31.6402	-9.06493	 4.01509	 3.25395
    12	 9.34203	 21.5209	 29.2774	-1.98946	  6.3055	-2.38614
    13	 38.8685	 33.3835	 32.9874	0.201212	 1.22911	-2.68539
    14	 39.4107	 34.4398	 33.7134	 0.73522	0.641525	-0.509324
    15	 38.6371	 35.6076	 33.7431	-1.14311	 -1.9779	-0.756158
    16	 37.8588	 35.8158	 32.5405	0.223551	  2.2344	-1.08909
    17	 37.4329	 34.7663	 31.7098	 1.14601	-0.667471	-0.514056
    18	 38.0223	 33.4545	 31.8953	 3.19597	 5.12026	 -4.2611
    19	 39.5331	 34.1201	 34.7822	 4.57606	 4.72242	-1.91882
    20	 38.4445	 33.1911	 30.9461	 2.58378	-1.94941	0.510556
    21	 38.9094	 36.4671	 34.3322	 1.61098	0.328764	   8.199
    22	 36.3793	 34.7801	 31.5032	-6.90468	-2.81604	0.397219
    23	 37.1279	 36.6215	 32.7775	 5.52775	-11.7624	-3.72683
    24	 38.9244	 32.4725	 33.5589	-4.67009	 11.3554	 5.40554
    25	 39.3394	  23.456	 37.2589	 1.69883	-2.11072	-0.493298
    26	 39.0101	  24.138	 36.0986	 0.25615	0.100314	 2.29741
    27	  39.165	 25.5094	 36.0777	 1.12484	-1.05852	-0.682214
    28	 39.4964	 26.1127	 37.3281	0.455094	0.489635	0.603638
    29	 39.7395	  25.427	 38.4904	0.190425	-0.801046	-0.678193
    30	 39.6198	 24.0681	 38.4739	0.876302	-1.58106	0.330672
    31	 39.2046	 23.6756	 35.1594	  8.0249	 2.97207	 3.64885
    32	 39.1824	 23.6281	 39.4027	-6.29976	 2.96578	-1.00158
    33	 39.7259	 25.9346	  35.218	-2.94493	-2.54697	 13.8275
    34	 39.8646	 25.9928	 39.4027	 -2.4317	-0.946301	-4.12349
    35	0.129505	 26.9981	 37.2499	-3.82164	 6.26576	-6.94423
    36	  39.099	 22.3515	 37.2578	0.336282	 9.51441	-6.39463
    37	 23.2291	 37.2198	 37.2772	0.0879432	-0.517154	-0.28935
    38	 24.0523	  38.194	 36.7257	-0.186128	-0.441758	-2.61944
    39	 23.6832	  38.924	 35.5855	-3.57029	0.838021	 3.45916
    40	 22.3298	  38.954	 35.2462	-0.619878	-2.12413	-2.34145
    41	 21.4908	 37.9643	 35.8487	 1.84686	   1.873	 1.18729
    42	 21.8461	  37.469	 37.1529	-0.992312	-1.38933	0.103896
    43	 25.1622	   38.02	  36.727	 10.7069	-9.41464	-9.80427
    44	 21.2195	 36.6264	 37.3562	 5.39251	0.733739	-2.78693
    45	 24.2219	 39.7784	 35.2752	 3.72092	 2.00009	  3.3262
    46	 20.4048	 38.2238	  35.875	-0.713295	-0.741437	 6.93463
    47	 22.2213	  38.987	  34.165	 6.58718	 5.77512	-11.6145
    48	 23.6298	 36.9436	 38.2851	-0.306444	-6.94806	  1.0408
    49	 35.2469	 23.0191	 34.7677	-0.222154	-0.165211	-2.66766
    50	 34.6924	 21.9543	 34.1094	-1.75765	0.200855	0.648091
    51	  33.303	 21.9691	  33.713	-1.56485	 3.03028	-3.21108
    52	 32.5146	 23.1417	 33.9693	-0.0774213	 -1.8765	-1.55716
    53	 33.1168	 24.0391	 34.8174	 -2.5445	-1.46086	-1.60635
    54	 34.4515	 24.1903	 35.0565	0.505491	 2.70641	-1.30236
    55	 34.8881	 20.9141	 34.4984	-4.78584	-6.41687	 -1.3494
    56	 34.8493	 24.6183	 35.9589	-4.99896	-2.62717	 3.15475
    57	 33.2129	 21.6427	  32.697	0.870689	 2.83061	-20.3438
    58	 32.4145	 24.8445	 35.0601	 1.34105	 3.50209	 1.37552
    59	  31.538	 22.8822	 34.3029	-2.96105	 -2.2754	-4.95493
    60	 35.9209	 22.7167	 35.5907	 -7.2791	 -0.4091	 4.08084
    61	 28.9089	 28.3366	  21.287	-0.0269068	-0.492803	0.830961
    62	 27.9896	 29.2956	 21.7674	-0.446914	-0.230347	 1.24549
    63	 26.7144	 29.2793	 21.3052	 0.77579	 1.70616	0.519607
    64	 26.2966	 28.4323	 20.2114	-1.38561	 1.56958	-1.80798
    65	 27.2023	 27.4487	 19.7937	0.110231	 1.15085	-2.52363
    66	 28.5737	 27.5397	 20.1277	 2.11701	-0.412299	 2.41479
    67	 28.4439	 30.2181	 22.1278	-2.16073	 3.51091	 2.99188
    68	 28.9843	   26.52	 20.3513	-3.76718	-1.71739	 2.30174
    69	 25.8994	 29.8534	  21.661	-3.02051	 -8.8413	-3.74881
    70	 26.8644	 26.4395	  19.588	0.107948	-3.00849	 6.42418
    71	 25.2675	 28.0458	 20.2621	 2.31755	-0.37513	 0.23612
    72	 29.9642	 28.5054	 21.3189	 7.52391	-4.27894	-1.73481
    73	 6.02467	 26.8337	 12.7383	0.961538	0.506328	-2.90747
    74	 6.21671	 25.7072	 11.9118	0.672139	-2.23857	 1.97458
    75	 6.26619	 25.9362	 10.5247	  -3.207	0.985087	 1.05108
    76	 6.01689	 27.2592	 10.1084	 1.63539	-1.37637	0.375704
    77	 5.58795	 28.2583	 10.9155	-0.622952	-1.29214	-1.47981
    78	 5.54983	  28.009	 12.2796	0.0169684	 1.39153	-0.280064
    79	 6.81745	 24.9211	  12.328	 2.65398	-3.00328	-3.82134
    80	 5.34765	 28.7619	 12.9862	-0.603744	 7.35963	-2.74804
    81	 5.89445	 25.2017	 9.85706	 1.24441	-9.30637	-0.993126
    82	  5.6457	 29.2562	 10.5647	 5.79501	-3.80283	 8.00041
    83	 6.24759	 27.3777	 9.04674	 4.69932	-1.32271	 -1.3516
    84	 5.82395	 26.4704	 13.7431	-2.28315	-4.06869	0.445866
    85	 16.7881	 27.7688	 32.9247	 -3.4744	-0.431703	-1.89182
    86	 17.0435	 28.6722	 33.9927	0.348339	0.549098	-2.27215
    87	 18.0229	 29.7052	 33.8545	-0.00717057	0.283056	-1.35332
    88	 18.8968	 29.6448	 32.7572	-4.26086	-0.809162	-3.15843
    89	 18.6192	 28.7593	 31.7518	-2.74078	 -0.4652	-1.69957
    90	 17.5761	 27.8001	 31.7706	-1.38889	0.996161	-2.91171
    91	 16.8307	 28.2647	 34.9408	 12.9549	-3.71764	 4.82892
    92	 17.9289	 26.8318	 31.4231	 4.46901	-9.81502	 3.02283
    93	 18.5385	 29.8526	 34.7791	 5.92801	-7.17302	 5.14287
    94	 19.4963	 28.2374	  31.284	-0.385921	  6.2838	 14.0941
    95	 19.4294	 30.5657	 32.4393	-3.18351	-8.92933	-12.5312
    96	 16.7927	 26.7088	 33.2975	-1.44885	 1.01043	 3.58764
    97	 21.1346	 35.6685	  20.769	0.280709	-0.578953	-2.08999
    98	 22.4139	 35.2349	 20.4363	 2.78054	-0.634688	-0.630574
    99	 22.5802	 34.7108	 19.1549	-1.09502	0.982066	0.572628
   100	 21.4154	 34.5702	 18.3464	-0.974776	-0.969773	-1.86309
   101	 20.1194	 34.9074	 18.7761	-3.21742	-0.974093	-1.76466
   102	  20.012	  35.581	 19.9915	0.324183	0.0563524	 2.17746
   103	 23.2708	 35.3934	 21.0824	  -3.934	 1.03082	 7.30283
   104	 19.1247	 35.3211	 20.6125	-1.49199	-3.44591	 3.24153
   105	 23.4842	 35.0102	 18.6186	-4.22678	 4.89637	-3.72544
   106	  19.374	 35.2376	 18.0551	 5.03503	 9.34465	-1.10518
   107	 21.4505	 33.6143	 17.8754	-4.37453	 0.96033	 4.69465
   108	 20.8597	  35.818	 21.8467	-1.45411	 1.89302	 1.60959
   109	 22.3316	 29.4617	 2.81585	-0.848236	-1.34736	-0.796391
   110	 23.2004	 30.1979	 2.03712	0.297764	0.0814999	 2.12157
   111	 24.3126	 30.7298	 2.74228	-0.512091	-0.383053	 1.18109
   112	 24.4623	 30.4687	 4.07175	-0.173047	-0.262431	0.855892
   113	 23.7735	  29.463	 4.76844	-0.571783	 1.80772	 1.79719
   114	 22.5843	 29.0283	 4.15387	0.446122	-0.156879	0.455623
   115	 22.6893	 31.0111	 1.52032	 3.76855	 6.71291	 2.16598
   116	 22.3322	 27.9712	 4.26946	 6.28611	 4.63947	-10.6954
   117	 24.8905	 31.4082	 2.17145	 2.34679	 5.25274	-2.74786
   118	 23.4856	 29.7992	 5.79701	 9.50116	-0.109066	0.688444
   119	 25.0501	 31.1149	  4.6996	  1.0006	 1.17077	  9.7784
   120	 21.8413	 28.6281	 2.28105	-1.68014	 3.12898	-4.08865
   121	  20.587	0.809011	 8.42717	 1.50916	  1.9233	-2.26361
   122	 21.3459	0.562561	 9.63059	-1.25395	-1.95595	0.673076
   123	 20.7529	0.129007	 10.7958	-0.874984	0.307565	-0.778015
   124	 19.3646	0.324975	 10.9458	0.117583	-1.37155	-1.81917
   125	 18.6714	0.788223	 9.76581	 1.26017	-0.840356	  2.4394
   126	 19.2833	 1.12793	 8.61381	 1.27262	0.623493	0.430546
   127	 22.3446	0.185412	 9.44268	 3.40003	 4.90108	-10.4853
   128	 18.6934	 1.78628	 8.00597	 3.09638	 6.67763	-2.96868
   129	 21.3262	 39.8925	 11.6473	 3.39218	 8.49805	 3.80848
   130	 17.8963	 1.47895	 10.1531	-3.15697	 2.58958	-3.62712
   131	 19.0792	0.972289	 11.7994	 1.97611	 3.14593	 20.7075
   132	 21.1452	0.960411	 7.55103	 2.77162	-7.95051	 7.65645
   133	 15.9648	 23.0656	 29.3729	-0.200117	 1.51987	-3.28274
   134	 15.9105	 23.1386	 28.0227	-0.814674	  1.6783	-1.91202
   135	 16.6929	 22.1999	 27.2791	 1.76975	-2.06637	-1.41677
   136	 17.6843	 21.5903	  28.052	 1.03812	 1.86842	-2.23121
   137	 17.8568	 21.6237	  29.425	-0.351137	-0.201973	 1.05543
   138	 16.7933	 22.2616	 30.1435	-1.84293	0.117261	-1.92989
   139	 16.1776	 24.1476	  27.657	 4.90301	-3.85664	 0.36087
   140	 17.1633	 22.8084	 31.0409	 1.60669	0.349042	 8.17711
   141	 17.0842	 22.5706	 26.3589	 1.51937	0.361772	 8.02311
   142	  18.015	 20.6051	 29.8795	-1.19514	-10.9579	-9.84389
   143	 18.6978	 21.7587	 27.5799	-5.35024	 3.19793	-2.26589
   144	 15.1763	 23.5211	 30.0221	 8.73278	 -3.8364	 2.38299
   145	 15.1967	 29.6856	 18.5733	 2.40623	-0.0327361	-0.949518
   146	 14.3674	 29.6312	 17.4183	0.825026	0.763932	-4.03374
   147	 14.5758	 30.6298	  16.424	0.363165	0.053529	 2.13413
   148	 15.1228	 31.7951	 16.8644	0.319787	0.802191	0.0446676
   149	 15.9807	 31.8611	 18.0199	 2.09796	0.950364	-4.00729
   150	 16.0847	 30.7301	 18.8866	-1.65036	0.904514	-0.754422
   151	 14.2201	 28.6271	 17.0153	-1.57686	-2.42344	-4.71992
   152	 16.0909	 31.0458	 19.9281	-7.34022	-0.279306	 1.56062
   153	 14.7897	 30.2083	 15.4764	 10.2497	-4.84775	 6.29271
   154	 16.9571	 32.1749	 17.6775	0.345496	-2.06715	 1.34894
   155	 14.5163	 32.7164	 16.8458	-8.00639	0.722108	 9.15857
   156	 14.8144	 29.2722	 19.5183	-1.57051	 9.34536	-4.84337
   157	 39.7354	 27.9883	 7.29823	0.693853	-0.192159	-1.33657
   158	 39.6471	 26.8485	  6.4584	-3.44132	 1.20873	-0.0511497
   159	  39.573	 25.6473	 7.15607	0.391476	0.0264531	 2.10934
   160	 39.8155	 25.5869	 8.54064	0.271082	-3.49719	-0.518297
   161	 39.8342	 26.7129	 9.29088	-2.89563	 1.39542	0.317245
   162	0.0222549	 27.9535	   8.686	 1.37993	0.143331	-2.61807
   163	 38.8555	 27.0355	 5.69508	 1.46361	-4.29163	 5.85634
   164	 39.5831	 28.7911	 9.24208	 1.96698	-2.72942	-3.81992
   165	 39.9225	 24.7163	 6.65254	 1.47426	-2.35456	-8.96552
   166	 39.2591	 26.7886	 10.1889	  2.9281	 2.58745	-2.49145
   167	0.275504	 24.6439	  8.9433	 8.26882	 6.45222	 3.79705
   168	0.350652	  28.848	 6.90056	 3.31224	-3.29748	 3.28609
   169	 15.0197	 35.6704	 33.2435	0.393987	0.338415	0.226578
   170	 14.5052	 35.2095	  31.991	0.237797	-1.87047	-2.04001
   171	 13.5845	 34.2215	 31.8283	 1.69935	-2.96316	-0.395946
   172	 13.0073	 33.5896	 32.9861	-2.38932	0.552214	-0.73942
   173	  13.586	 33.9479	 34.1841	-0.574956	-1.94017	0.675418
   174	 14.5829	 34.9826	 34.3633	 1.39085	0.00187026	-0.482567
   175	 14.4238	 36.0664	 31.2909	 -10.605	 12.6446	 5.88119
   176	 14.4189	 35.5879	 35.2386	 -9.6273	 2.13621	-1.48884
   177	 13.7258	 33.4983	 31.0524	   5.189	-5.86495	-2.52486
   178	 13.6813	 33.0994	 34.9015	 7.38919	-6.78195	 1.05809
   179	 11.9278	 33.5954	 32.9697	-3.55909	 1.70772	 2.00492
   180	 14.7904	 36.7533	 33.2649	-8.13199	  4.8943	 1.60703
   181	 25.4997	 6.42217	 33.4811	-0.523533	 1.10098	-3.22149
   182	 25.9156	 7.70696	 33.7668	0.217279	-0.729233	 1.02749
   183	 25.6001	 8.32077	 35.0405	-1.13342	 3.06947	0.456124
   184	 24.8042	 7.62195	  35.941	0.639431	-2.52498	 0.57667
   185	 24.6666	 6.21559	 35.7848	-1.51726	-3.37198	-3.31433
   186	 25.1775	 5.63428	 34.6417	-2.75403	 1.87722	-1.77879
   187	 26.8181	 8.15465	 33.4203	-4.90897	-3.50888	 8.36689
   188	 24.7491	 4.68984	 34.4115	 2.55066	-6.63996	  7.6357
   189	  25.705	 9.35983	 35.1689	 6.22331	-1.42848	-3.35426
   190	 23.8491	 5.74362	 36.2601	 1.47419	0.390792	 8.14393
   191	 24.4927	 8.08308	 36.8715	-8.95094	-5.03308	 1.73091
   192	 25.9608	 5.79276	 32.7505	 2.06841	-0.233086	 3.36406
   193	 29.0291	 29.7771	 37.8273	0.682564	0.630176	-4.05826
   194	 28.5269	 31.0068	 37.3555	-0.946761	-0.209785	-3.47754
   195	 29.1031	 32.1272	 38.0409	0.221319	 1.10766	-2.54512
   196	 30.0775	 32.0165	 39.0536	0.765204	 1.16368	-0.308112
   197	 30.6369	 30.7456	 39.4517	 1.61654	-1.21178	-2.49564
   198	 30.1892	 29.7121	 38.6066	 2.46699	-1.90456	-1.55459
   199	 27.4303	 31.0196	 37.6215	-2.78278	 1.21485	-2.17095
   200	 30.9812	 29.2085	 38.0989	-0.152193	 12.1508	-2.01385
   201	 28.2619	 32.8098	 38.3528	 3.39552	 -1.1966	 7.37397
   202	  31.735	 30.7611	 39.5115	-2.77689	-6.49849	 13.9228
   203	 30.9685	 32.6128	 38.7003	-1.21284	-6.60845	-1.83766
   204	 28.2604	 29.0487	 37.8688	-3.42656	-2.53396	 4.56175
   205	 28.1593	  8.7182	 38.7916	0.113124	0.251857	-1.99516
   206	 28.8371	 9.90314	  39.207	0.734362	-0.0485882	-4.57516
   207	 28.1427	 11.0639	 39.4847	0.870426	-0.133153	 1.33028
   208	 26.7507	 10.9245	 39.6394	-1.87426	0.188929	 2.56024
   209	 26.1306	  9.6485	 39.4781	 2.07466	0.842508	-3.36183
   210	 26.9478	 8.49981	 39.4783	-1.82753	 1.87773	 0.40629
   211	 29.8113	  9.7354	 39.7221	-1.42322	-5.15289	 4.72949
   212	 26.3725	 7.59425	 39.2758	-15.3738	-5.00616	-12.0019
   213	 28.5595	  11.569	0.329059	-2.15615	 3.64761	 2.82439
   214	 25.2374	 9.56304	 38.9083	-2.86492	 4.29982	 10.0576
   215	 26.3188	 11.5292	0.453911	 6.51673	 -1.8951	-3.24679
   216	 28.9235	 7.90622	 38.7938	 1.49984	-1.20492	-2.57925
   217	 18.2432	 5.41068	  1.9417	-0.577775	 1.32222	 2.25358
   218	 16.8907	 5.76824	 2.05918	-1.36928	-0.0595079	0.802033
   219	 16.4777	 7.14018	 2.05852	 0.55779	 2.45577	0.403504
   220	 17.4862	 8.06174	 2.18402	-1.18248	 -1.3107	 -1.0352
   221	 18.8308	 7.66734	  2.1388	0.307994	0.0569149	 2.14532
   222	 19.2801	 6.34499	 2.23007	-0.522767	-0.943526	-0.698677
   223	 16.3443	  5.2991	 2.93018	 1.65839	 0.33001	 8.19699
   224	 20.1076	 6.19876	 1.50328	-3.54704	 7.34029	 -13.693
   225	 15.7141	 7.19362	 2.88035	-7.05491	 -2.9266	-1.85609
   226	 19.5722	 8.38143	 2.50094	-3.24591	  2.2909	 6.28369
   227	 17.3808	 9.10681	 2.23371	0.460141	 4.03901	-6.85173
   228	 18.3934	 4.54198	 2.64236	  2.4987	-1.07344	-12.7815
   229	 4.16763	 23.8211	 18.6892	  -1.235	0.941509	 1.40881
   230	 4.23782	 22.4614	  18.303	0.466577	0.0318351	-0.214547
   231	 3.06931	 21.8414	 17.9044	 1.34362	-0.920577	  1.3183
   232	 1.79967	 22.5211	 17.9371	-0.137632	 1.26518	-1.31284
   233	 1.84546	 23.9584	 17.9696	0.636732	 1.32957	-0.709579
   234	 3.03506	 24.5665	 18.5216	0.537207	-0.620743	 1.28922
   235	 5.03298	 21.8912	 18.7028	 -3.8048	-0.524653	 5.34543
   236	 2.86233	 25.4494	 19.0879	0.835858	-6.91432	 -6.7337
   237	 3.04031	  21.101	 17.1428	-4.82506	-2.15726	 3.02283
   238	 1.02638	 24.3467	 18.6308	 6.15442	-0.976951	   -3.49
   239	 1.03068	 22.0941	 17.2315	 9.31916	-7.88701	 10.1754
   240	   5.145	 24.2276	 18.7309	0.848485	 1.19238	-2.49293
   241	0.912166	 14.8128	 28.8106	0.297105	0.0851029	 2.10661
   242	 2.02922	 14.1026	 29.3516	 1.63564	0.196411	-0.261887
   243	 2.93269	 14.8242	 30.1545	 1.62175	0.566607	-2.66719
   244	 2.74624	 16.1887	 30.3009	-0.846471	-1.39592	 2.28522
   245	 1.78162	 16.9764	 29.6037	0.359915	-0.892782	 1.10773
   246	0.788414	 16.2188	 28.9443	-1.45603	0.370905	0.103789
   247	 1.65323	 13.2272	 29.9114	-3.99931	 1.09636	-8.65404
   248	 39.9215	 16.6523	 28.5351	 3.99036	  2.3749	 1.20932
   249	 3.41183	 14.2841	 30.9834	-2.79637	 1.67308	 6.17125
   250	 2.21725	 17.8402	 29.1428	 2.93369	-6.36205	-3.04501
   251	  3.5803	 16.7614	 30.5815	-5.99818	 1.23373	 3.48548
   252	 0.45581	 14.5078	 27.9041	-0.282323	-8.23536	-4.20054
   253	 22.6685	 17.6798	 11.6797	-0.529593	0.796964	-0.983926
   254	 23.9472	 18.2815	 11.6614	0.592302	-0.692179	0.517129
   255	 24.9877	 17.8865	 12.5352	-0.672849	0.858541	0.152817
   256	 24.8894	 16.6412	 13.0575	-1.52926	-1.70224	0.915593
   257	 23.7979	 15.8561	 12.7057	 1.98993	 1.38868	-2.21994
   258	  22.662	 16.3052	 12.0366	  -1.197	 -2.2431	-2.31963
   259	 23.9126	 19.3679	 11.6325	-9.24406	-0.401507	0.378021
   260	 21.6901	 16.0811	 12.4383	  2.0192	 6.44284	-1.10592
   261	 25.1335	 18.6968	 13.2481	-8.14525	 1.17355	 6.14338
   262	 23.9581	 14.8355	 12.9355	-2.17971	 9.25257	-3.79368
   263	 25.6854	 16.1732	 13.6577	 5.69376	-0.880084	 1.71457
   264	 21.9605	 18.0246	 10.9729	-8.05504	-2.69546	-10.1625
   265	 10.7961	 12.5206	 23.1266	0.139235	-1.09524	-3.30163
   266	 12.2253	 12.5361	 23.0587	 -0.4544	0.282482	-1.25947
   267	 13.0051	 13.6808	 22.9286	-1.91609	0.736164	-3.17627
   268	 12.4413	 14.8955	 23.0816	-0.876173	 1.28346	0.123301
   269	  11.039	 14.9464	 23.1973	0.300692	0.0783519	 2.10137
   270	 10.1761	 13.8188	 23.1971	-1.07285	 1.05467	-0.288989
   271	 12.6685	 11.7906	 23.7322	 1.04439	 1.29329	 7.84918
   272	  9.2954	 13.8792	 23.8267	 1.56439	0.317298	 8.03496
   273	 14.1138	 13.5742	 23.0799	0.0117025	-1.78704	-1.50962
   274	 10.7008	 15.8956	 22.8377	 3.14491	 2.87407	 6.65712
   275	 12.9795	 15.7578	 23.4632	-1.97889	0.913857	   1.596
   276	 10.4383	 11.9442	 22.3016	-0.696268	-3.99385	 2.62512
   277	  4.4732	  36.393	 18.0102	 2.86333	 1.71938	-2.72467
   278	 3.33035	 35.6454	 18.2516	0.305818	0.804933	0.112126
   279	 2.83338	 35.3253	 19.5781	-1.65304	-2.11653	-7.15422
   280	 3.60666	 36.0212	 20.5691	-3.60245	-1.67055	-1.08084
   281	 4.87703	  36.513	   20.43	-0.140312	-2.43729	 1.37035
   282	 5.23414	 36.8875	 19.1363	-3.67307	-1.66118	-2.52744
   283	 3.40158	 34.6481	 17.7234	 9.99412	-0.502038	-3.32686
   284	 6.20924	 37.2368	 18.8944	-6.76045	-5.99192	 1.46581
   285	 1.77369	 35.4352	 19.6796	-1.65787	 9.20155	-10.3317
   286	 5.16874	 37.1494	  21.262	 1.57148	0.316153	 8.13357
   287	 3.28603	 35.7383	   21.59	-2.53145	-2.83197	 8.16278
   288	 5.12806	 36.0367	 17.1841	-1.48985	 3.87391	-5.88628
   289	 21.8472	 2.60224	 27.4087	-1.13626	-0.58985	-0.978784
   290	 23.2164	 2.58639	 27.5312	-0.519591	0.206667	-4.48109
   291	 23.8914	 3.82431	 27.6694	0.144489	0.238262	0.432279
   292	 23.1709	 5.06637	 27.6992	 1.34317	0.881808	0.125039
   293	 21.8079	 5.02105	 27.8372	0.0878697	0.0166985	 1.80011
   294	 21.1918	 3.82179	 27.7557	 1.98588	-0.647549	0.149296
   295	 23.7428	 1.88308	 26.8827	0.652524	 8.16816	  1.5145
   296	 20.3861	 3.67892	 28.4521	 3.43218	-5.94047	   7.216
   297	 24.8201	 3.95712	 27.1778	 1.40308	0.380279	 7.83482
   298	 21.2311	 5.96051	 27.7743	 -4.1283	-4.02874	 6.96637
   299	 23.7581	 5.84655	 28.0861	0.419746	 -5.3757	 4.98421
   300	 21.3828	 1.74745	 27.9659	-5.31536	-1.50315	-2.64584
   301	 20.4603	 34.6209	 7.88605	-0.377425	 1.08837	-0.89592
   302	 19.7184	 35.0654	 9.04173	0.681678	-0.364551	-1.72203
   303	 19.0418	 36.3122	  8.8804	-2.73653	-1.90385	-2.19235
   304	 19.5316	 37.1991	 7.96501	-0.618161	-0.849657	0.0518932
   305	 20.2646	 36.7392	 6.81076	0.915767	-0.488926	-1.07016
   306	 20.9804	 35.5061	 6.95973	-1.05064	-1.16721	 1.09806
   307	 20.3081	 35.1207	 9.96907	 14.6837	-2.45504	-1.99556
   308	 21.1995	  35.071	 5.95815	-1.10081	 2.39214	-4.15379
   309	 18.4535	  36.669	 9.76567	 2.91324	-10.7908	0.746908
   310	 20.9263	 37.5809	 6.52728	-6.73216	 2.25057	-9.12059
   311	 19.9767	 38.1386	 8.25559	 6.89491	-8.71767	-1.83105
   312	 21.1353	 33.8198	 8.28834	 1.17233	 5.72044	 4.01452
   313	 32.9801	 20.0066	 23.6405	0.666819	0.410074	-0.781689
   314	 32.0802	 19.0971	 23.1021	 1.59132	0.799222	-0.261601
   315	 31.5379	 19.5675	 21.8434	-0.964599	 2.29055	-3.24217
   316	 32.5191	 20.1361	  20.984	-3.65803	-0.714181	-1.34468
   317	 33.5612	 20.8549	 21.4879	 1.31877	-2.02737	-3.11147
   318	 33.8849	 20.7791	 22.8553	-0.310927	-3.44254	 0.31222
   319	 31.2837	 18.9336	 23.8818	-4.81494	 3.86693	 3.97513
   320	 33.9813	 21.7955	 23.3094	 -14.087	 7.97822	-6.98062
   321	 30.9212	 18.8323	 21.2809	 1.37865	-0.572268	 4.64077
   322	 34.4477	 20.8222	  20.832	 -4.1131	 4.60514	-8.14618
   323	 32.2076	  20.196	 19.9303	 2.75983	 6.27278	-0.594384
   324	 33.1955	 19.9674	 24.6712	-2.24013	-3.79381	-7.94956
   325	 4.74613	 4.01271	 39.8106	-0.191494	 1.25481	0.332974
   326	 6.01493	 4.58609	 39.9701	-0.790061	-0.53878	-2.30541
   327	  7.2027	 3.81289	 39.9987	-2.42274	 1.70411	-1.73462
   328	 7.11306	 2.47693	 39.7226	-0.623229	-0.955994	-1.42074
   329	 5.84586	  1.8721	0.0190327	-2.31428	0.041211	-2.76451
   330	 4.61413	 2.58648	  39.785	0.880501	-1.47617	-1.08723
   331	 6.02535	 5.58575	0.327745	-3.49409	 2.23119	 8.45474
   332	  3.8962	 2.29011	0.575549	-11.3528	-3.43878	-5.06105
   333	 8.05537	 4.36038	0.273096	-0.310346	-1.60978	 2.87761
   334	 5.81376	 1.15277	0.802741	 3.89358	 4.79413	 8.18172
   335	 7.88764	 1.84259	 39.3839	  1.3113	-2.82674	 1.32256
   336	 3.86064	 4.55947	0.192838	-5.17708	 3.58194	 10.8676
   337	 6.36244	 8.86983	 4.35711	-3.73109	0.112154	-0.812447
   338	 6.69736	 10.2693	 4.33439	-0.337285	-2.20602	-4.96729
   339	 7.96637	 10.7144	 4.67177	0.368919	-0.553544	-2.61682
   340	 8.68986	  9.9426	 5.57516	 1.13191	 1.96937	-0.429732
   341	  8.5198	 8.55713	  5.5065	0.798683	0.735749	-2.20632
   342	 7.31214	 8.09049	 5.05545	-0.854093	-0.899615	 1.64448
   343	 6.37793	 10.8252	 3.42331	0.806945	-7.76233	-3.76468
   344	 7.29336	 6.98005	  4.8915	 6.80232	-1.43033	  -4.697
   345	 7.92609	 11.7639	 4.97978	 1.08334	0.792525	-4.79833
   346	 9.40977	  7.9231	 5.26479	 -5.4362	-4.25822	  1.9724
   347	 9.05836	 10.4064	 6.49773	-9.08093	 3.42807	-9.44278
   348	 5.31289	 8.72565	 4.64805	 2.57729	-5.71936	 8.45217
   349	 35.8616	 23.2674	 24.6363	-0.485924	 2.62537	-1.79485
   350	 34.9982	 22.7367	 25.5519	-0.62901	 1.59585	-0.572214
   351	 35.4774	 21.8355	 26.4712	0.717492	-0.965743	-1.06381
   352	 36.6728	 21.1655	 26.0521	-0.535197	-1.88172	-1.19495
   353	 37.6501	 21.8197	 25.2125	-2.90369	-2.09886	 -1.6473
   354	  37.203	 22.8249	  24.373	-1.57036	 1.89646	 2.91733
   355	 34.1359	 23.2703	 25.9223	-0.157966	-2.44748	 11.7762
   356	 37.8932	 23.6411	 24.0741	 3.06559	 -2.6776	-8.38365
   357	 35.4962	 22.1224	 27.4855	 6.95881	 4.13565	 5.09069
   358	 38.1879	 21.0703	 24.6306	 1.51297	 1.44389	-6.83577
   359	 37.1197	 20.6514	 26.8854	 3.01659	  7.7477	-6.28979
   360	 35.6264	  24.037	 23.9269	-0.0162846	 2.32272	 2.78074
   361	 12.1841	 14.0447	 38.7328	  2.4181	 1.28315	-1.51729
   362	  12.932	 15.2647	 38.6709	0.028309	 3.11001	0.158666
   363	 14.2733	 15.0661	  39.151	0.846784	-0.331094	-1.42379
   364	 14.9457	  13.868	 39.0937	 1.19922	-1.79695	 1.69545
   365	 14.1324	 12.7306	 39.1867	-0.921031	0.618509	-0.224895
   366	 12.8196	    12.8	 38.6291	-0.318518	0.575468	 2.36367
   367	 12.4473	 15.9517	 39.4099	 4.95793	  1.7388	-5.98825
   368	 12.2473	  12.007	  39.052	-4.03307	-1.81688	 7.60932
   369	 14.9003	 15.9768	 39.2739	-3.34739	-1.37712	 6.26264
   370	 14.5334	 11.7632	 39.3606	-2.58619	0.0167229	 1.25067
   371	 15.9547	 13.8004	 38.7681	 1.40953	0.400889	 7.88347
   372	 11.1501	 14.0915	 39.0337	 3.22396	-5.64493	  7.1426
   373	 39.0549	 33.9988	 1.96818	0.489525	-0.348673	-0.887193
   374	 39.0584	 32.6862	 2.28692	0.429688	0.367163	 1.44204
   375	 37.8172	 32.0112	 2.46877	0.466297	 1.12825	0.330011
   376	 36.5826	 32.6848	 2.25625	-2.10914	-0.640621	-3.33786
   377	 36.5423	 34.0686	 2.04642	-0.400297	-0.672822	-1.98754
   378	 37.8037	 34.7171	 1.82973	-0.0325687	-0.39192	-1.65091
   379	  39.932	 32.2464	 2.76684	-4.97985	-0.367237	 7.34709
   380	 37.9234	 35.7308	 2.10171	-2.57991	-0.582158	-1.72743
   381	 37.8434	 31.0662	 2.00099	-0.774109	-3.53157	 7.00877
   382	 35.9754	  34.227	 1.09716	-3.02768	-8.48188	 -3.9591
   383	 36.1065	 32.1626	 1.38499	-0.311063	  3.2203	-5.80466
   384	 39.8313	  34.608	 2.32878	-6.69183	0.850173	 5.83639
   385	 27.5181	 34.0777	 15.1758	 1.30859	-0.860649	-2.79817
   386	 26.4348	 34.0555	 16.1355	-1.14604	0.309394	 1.86175
   387	 25.9034	 32.8292	 16.4409	 1.51955	0.235008	0.731215
   388	  26.371	 31.7152	 15.7095	0.0843569	-1.16405	 1.54404
   389	 27.4736	 31.7147	 14.9188	-1.34155	0.943503	0.370804
   390	 28.1558	 32.8795	 14.7391	-0.0526342	 1.92565	-0.113179
   391	 25.6356	 34.6945	 15.6783	-6.84601	 1.01211	-3.66564
   392	 29.2583	 32.8307	 14.9801	-0.0278533	 -6.9779	 8.98254
   393	 25.1723	 32.6699	 17.1895	 1.06117	-2.32045	 6.37856
   394	 27.5687	 30.8767	  14.187	-7.50499	  1.9874	-5.89415
   395	  26.089	 30.7734	 16.1557	0.290446	-0.59076	-5.10034
   396	 28.2867	 34.7706	 15.5453	-1.24152	-4.55232	0.0388155
   397	 10.2488	 38.7925	 24.5025	0.0280929	-0.201146	-1.56804
   398	  10.316	 38.2633	 25.7768	  -1.623	-2.90241	-0.854795
   399	 11.4139	 38.6611	 26.5757	-0.392734	-0.333242	0.245891
   400	 12.6063	 39.1156	 26.0513	 -2.2142	-0.0226372	-2.19956
   401	 12.6437	 39.4734	 24.7353	0.154907	-0.00251962	 1.43741
   402	 11.4579	 39.2749	 24.0104	 1.57226	  1.9771	 1.06151
   403	 9.38222	 38.1926	 26.3658	 4.29118	 4.86982	-7.92786
   404	 11.4281	 39.6314	  23.009	 2.87508	 1.03864	 4.60234
   405	 11.2815	 38.5559	 27.6612	-6.96267	-1.12914	-0.939233
   406	 13.4752	 39.1347	 24.0971	 4.49604	 1.15795	 1.50427
   407	 13.1768	 39.6669	 26.7571	0.793019	-0.80447	 8.19603
   408	 9.64538	 38.3148	  23.715	 9.76844	 4.42136	 -10.402
   409	 27.6006	 37.2918	 11.7221	0.505127	-1.37435	-1.42312
   410	 28.1574	 37.7584	 10.5701	 -2.2155	 3.32598	0.783687
   411	 29.0185	 38.8387	 10.6373	 1.26436	-0.0623655	 1.51767
   412	 29.5625	  39.164	 11.9257	-0.339922	-0.511515	-6.50175
   413	  28.987	 38.6991	 13.0824	-0.633444	 1.42979	-2.14292
   414	 27.8541	 37.8793	 13.0135	-2.77711	-0.460458	-2.97721
   415	  27.425	 37.9005	 9.76525	-8.06391	-9.22263	0.695815
   416	 26.9623	 38.3899	 13.4151	 3.64442	 8.90305	-5.09278
   417	 29.9194	 38.7062	 9.97233	 3.53636	 2.40924	 2.49398
   418	 28.8602	 39.5495	 13.8036	 1.46971	 15.8071	-17.4474
   419	 30.6655	 38.9606	 11.9491	-7.60684	-3.11958	-7.61235
   420	 26.7677	 36.6185	 11.6079	 2.49215	0.937484	-5.86898
   421	 11.9526	 32.0917	 9.06049	-0.407736	0.211591	-0.136905
   422	   11.92	 30.7273	 9.45272	-0.0237089	 -2.4248	  1.4076
   423	 11.5647	 30.4038	 10.8063	0.637236	0.331863	0.00951511
   424	 11.7137	 31.3391	 11.8325	0.246152	0.0283842	 2.18056
   425	 11.7263	 32.6845	 11.4625	0.845184	0.773111	0.422649
   426	 11.8323	  33.056	 10.1135	0.351936	0.104915	 2.16378
   427	 11.4798	 30.0994	 8.72497	-8.43391	-3.36801	 1.41173
   428	 12.4095	  33.923	 9.90672	 4.20226	-5.88149	-0.886837
   429	 11.7435	 29.3878	 11.0668	 1.48105	0.314138	 8.03026
   430	 12.2168	 33.3529	  12.154	-3.24627	-6.19494	 2.14265
   431	 12.1788	 31.0844	 12.7607	  1.6183	0.304267	 8.24956
   432	 12.8269	 32.2122	 8.41036	 6.13186	 1.36692	 2.48654
   433	 30.5466	 29.2842	 9.51005	-0.951398	0.956185	-0.545044
   434	  31.455	 28.4719	 8.91517	 1.48052	-0.0220511	0.0670979
   435	 31.6198	 27.1748	 9.45854	 1.86704	-1.58882	-1.56997
   436	 30.6831	 26.6236	 10.4157	-0.195287	-1.61717	-0.510471
   437	 29.6352	 27.4752	 10.8553	-0.442805	-0.385528	 -1.5161
   438	 29.5116	 28.7437	 10.3397	-0.827642	0.245868	 -1.7346
   439	  32.484	 28.9195	 8.82046	-2.10197	 1.67597	 6.92681
   440	  29.367	 29.4605	 11.1784	 6.31382	 2.55777	-2.73782
   441	 31.8212	 26.4777	 8.66817	 5.08692	 2.53473	-4.99562
   442	 29.4094	 27.4513	 11.8968	 4.70058	0.395795	 4.65426
   443	 31.0994	 26.1075	 11.2768	 1.40386	 6.42736	 9.21304
   444	 30.2271	 30.2491	 9.06637	 1.65892	 0.37588	 8.29381
   445	 16.6672	  20.134	 21.8038	0.679679	 1.23284	-1.52028
   446	 17.9188	 20.8323	  21.859	  1.2455	-0.650519	 2.43663
   447	 18.0722	 22.0131	 22.6275	-3.09294	-2.23098	0.698968
   448	 17.0524	 22.4042	 23.4492	-1.61528	0.327006	-2.26731
   449	 15.8599	  21.671	 23.4072	-2.02471	-0.302091	0.378672
   450	 15.7642	 20.3842	 22.8936	-2.40002	-1.46906	-2.22118
   451	 18.7958	  20.177	 22.1251	-2.91917	-8.82118	-0.198976
   452	 16.0496	 19.6443	 23.6693	 7.37195	 5.87373	 6.27174
   453	 19.1025	 22.1414	 22.9475	0.470819	-4.74184	 6.16583
   454	 15.2825	  21.724	 24.3584	0.716996	 4.32683	-5.72019
   455	 16.8489	 23.4979	 23.4444	-1.03825	 4.67523	-8.81556
   456	 16.7997	 19.0411	 21.7703	 6.99031	-6.83378	 1.97373
   457	 15.3445	 16.6811	 11.4603	 1.87266	 1.34025	 1.43455
   458	 16.5387	 17.3044	 11.6829	 -2.8614	0.332115	-1.27047
   459	 17.4491	 17.7755	 10.7301	0.936075	-0.96743	-0.378401
   460	 17.2102	 17.3045	 9.38041	-0.969325	-0.395737	-1.13325
   461	 15.9431	 16.7968	 9.17514	  2.4697	 1.70319	0.391076
   462	 14.9622	 16.5003	 10.1351	0.499527	0.214178	 1.75618
   463	 16.9856	 17.0487	 12.6358	 1.60773	0.354946	 8.27581
   464	 14.0525	 16.0342	 9.83607	 9.74559	  1.5344	 12.3108
   465	  18.493	 17.7063	  11.089	 3.20378	 1.41385	-2.51026
   466	 15.7423	 16.4709	 8.15288	 7.75434	-0.131752	-3.54041
   467	 17.4203	 18.1538	 8.72729	 6.81527	 5.27108	  6.2555
   468	 14.5254	 17.1749	 12.0221	 0.95827	 9.05445	 -3.4578
   469	 20.7837	 19.8033	 38.5017	0.147009	0.233128	-1.30917
   470	 22.0866	 20.3391	 38.5756	0.879015	0.992411	 0.23278
   471	  22.253	 21.6609	 38.9929	-0.541089	 1.35241	 1.65613
   472	 21.2518	 22.4845	 39.4977	-0.781552	0.610552	-0.871649
   473	 19.9767	  21.926	  39.563	-0.691487	-0.679433	 2.20032
   474	 19.7897	 20.5907	 39.1717	-0.153097	 1.00374	 2.36245
   475	 22.9299	 19.7687	 38.3146	 3.53573	 -1.0133	 7.50141
   476	 18.9616	  20.079	 39.6379	 1.51524	 0.36301	 8.05766
   477	 23.2334	 21.8548	 39.3377	0.0949822	-3.39361	 6.50277
   478	 19.2236	 22.3425	0.179263	-1.21905	-0.696072	-8.02185
   479	 21.3459	 23.5302	 39.6278	  1.4684	0.341676	 7.96328
   480	 20.7058	 18.7877	 38.9694	 8.17776	  4.6261	-0.407104
   481	  35.189	 34.8773	 12.3991	-4.30911	 2.88046	0.312708
   482	  33.914	 35.5589	 12.3364	-1.70054	 1.47026	-3.82995
   483	 33.0242	 35.1699	 11.2711	-0.378582	 1.14951	-1.11427
   484	 33.1657	 34.0178	 10.5238	-1.72344	-0.412073	-2.65082
   485	  34.397	 33.3482	 10.6765	0.338317	0.0937097	 2.12051